REMARK  15 active torsions:
REMARK  status: ('A' for Active; 'I' for Inactive)
REMARK    1  A    between atoms: O1_1  and  C16_18 
REMARK    2  A    between atoms: C1_3  and  C2_4 
REMARK    3  A    between atoms: C1_3  and  C3_5 
REMARK    4  A    between atoms: C2_4  and  C4_6 
REMARK    5  A    between atoms: C3_5  and  C5_7 
REMARK    6  A    between atoms: C4_6  and  C6_8 
REMARK    7  A    between atoms: C5_7  and  C7_9 
REMARK    8  A    between atoms: C6_8  and  C8_10 
REMARK    9  A    between atoms: C7_9  and  C9_11 
REMARK   10  A    between atoms: C8_10  and  C10_12 
REMARK   11  A    between atoms: C9_11  and  C11_13 
REMARK   12  A    between atoms: C10_12  and  C12_14 
REMARK   13  A    between atoms: C11_13  and  C13_15 
REMARK   14  A    between atoms: C12_14  and  C14_16 
REMARK   15  A    between atoms: C14_16  and  C16_18 
ROOT
HETATM    1  C4  UNL     1      -2.148   3.289  -0.489  1.00  0.00     0.000 C 
ENDROOT
BRANCH   1   2
HETATM    2  C2  UNL     1      -0.697   2.955  -0.853  1.00  0.00     0.000 C 
BRANCH   2   3
HETATM    3  C1  UNL     1       0.167   2.577   0.352  1.00  0.00     0.000 C 
BRANCH   3   4
HETATM    4  C3  UNL     1       1.596   2.242  -0.080  1.00  0.00     0.000 C 
BRANCH   4   5
HETATM    5  C5  UNL     1       2.454   1.829   1.117  1.00  0.00     0.000 C 
BRANCH   5   6
HETATM    6  C7  UNL     1       3.908   1.518   0.750  1.00  0.00     0.000 C 
BRANCH   6   7
HETATM    7  C9  UNL     1       4.115   0.439  -0.321  1.00  0.00     0.000 C 
BRANCH   7   8
HETATM    8  C11 UNL     1       3.595  -0.940   0.093  1.00  0.00    -0.000 C 
BRANCH   8   9
HETATM    9  C13 UNL     1       3.723  -1.992  -1.012  1.00  0.00    -0.005 C 
HETATM   10  C15 UNL     1       3.181  -3.358  -0.620  1.00  0.00     0.005 C 
ENDBRANCH   8   9
ENDBRANCH   7   8
ENDBRANCH   6   7
ENDBRANCH   5   6
ENDBRANCH   4   5
ENDBRANCH   3   4
ENDBRANCH   2   3
ENDBRANCH   1   2
BRANCH   1  11
HETATM   11  C6  UNL     1      -2.918   2.199   0.265  1.00  0.00     0.000 C 
BRANCH  11  12
HETATM   12  C8  UNL     1      -2.989   0.867  -0.487  1.00  0.00     0.000 C 
BRANCH  12  13
HETATM   13  C10 UNL     1      -3.698  -0.203   0.343  1.00  0.00     0.001 C 
BRANCH  13  14
HETATM   14  C12 UNL     1      -3.834  -1.552  -0.375  1.00  0.00     0.010 C 
BRANCH  14  15
HETATM   15  C14 UNL     1      -2.506  -2.201  -0.764  1.00  0.00     0.110 C 
BRANCH  15  16
HETATM   16  C16 UNL     1      -1.606  -2.526   0.403  1.00  0.00     0.139 C 
HETATM   17  O2  UNL     1      -1.904  -3.306   1.299  1.00  0.00    -0.650 OA
BRANCH  16  18
HETATM   18  O1  UNL     1      -0.439  -1.837   0.377  1.00  0.00    -0.776 OA
HETATM   19  H32 UNL     1       0.129  -2.046   1.148  1.00  0.00     0.167 HD
ENDBRANCH  16  18
ENDBRANCH  15  16
ENDBRANCH  14  15
ENDBRANCH  13  14
ENDBRANCH  12  13
ENDBRANCH  11  12
ENDBRANCH   1  11
TORSDOF 15
