REMARK  16 active torsions:
REMARK  status: ('A' for Active; 'I' for Inactive)
REMARK    1  A    between atoms: O1_1  and  C18_20 
REMARK    2  A    between atoms: C1_3  and  C2_4 
REMARK    3  A    between atoms: C1_3  and  C3_5 
REMARK    4  A    between atoms: C2_4  and  C6_8 
REMARK    5  A    between atoms: C3_5  and  C9_11 
REMARK    6  A    between atoms: C4_6  and  C5_7 
REMARK    7  A    between atoms: C4_6  and  C7_9 
REMARK    8  A    between atoms: C5_7  and  C8_10 
REMARK    9  A    between atoms: C6_8  and  C10_12 
REMARK   10  A    between atoms: C7_9  and  C11_13 
REMARK   11  A    between atoms: C8_10  and  C12_14 
REMARK   12  A    between atoms: C9_11  and  C13_15 
REMARK   13  A    between atoms: C10_12  and  C14_16 
REMARK   14  A    between atoms: C11_13  and  C15_17 
REMARK   15  A    between atoms: C12_14  and  C16_18 
REMARK   16  A    between atoms: C16_18  and  C18_20 
ROOT
HETATM    1  C11 UNL     1      -2.488   2.484  -0.278  1.00  0.00     0.027 C 
ENDROOT
BRANCH   1   2
HETATM    2  C7  UNL     1      -1.251   1.953   0.453  1.00  0.00     0.004 C 
BRANCH   2   3
HETATM    3  C4  UNL     1      -0.001   1.923  -0.432  1.00  0.00     0.000 C 
BRANCH   3   4
HETATM    4  C5  UNL     1       1.202   1.360   0.328  1.00  0.00     0.000 C 
BRANCH   4   5
HETATM    5  C8  UNL     1       2.460   1.359  -0.543  1.00  0.00     0.001 C 
BRANCH   5   6
HETATM    6  C12 UNL     1       3.670   0.827   0.232  1.00  0.00     0.010 C 
BRANCH   6   7
HETATM    7  C16 UNL     1       4.938   0.787  -0.621  1.00  0.00     0.110 C 
BRANCH   7   8
HETATM    8  C18 UNL     1       6.137   0.256   0.125  1.00  0.00     0.139 C 
HETATM    9  O2  UNL     1       6.147  -0.156   1.275  1.00  0.00    -0.650 OA
BRANCH   8  10
HETATM   10  O1  UNL     1       7.244   0.328  -0.659  1.00  0.00    -0.776 OA
HETATM   11  H34 UNL     1       8.043   0.002  -0.193  1.00  0.00     0.167 HD
ENDBRANCH   8  10
ENDBRANCH   7   8
ENDBRANCH   6   7
ENDBRANCH   5   6
ENDBRANCH   4   5
ENDBRANCH   3   4
ENDBRANCH   2   3
ENDBRANCH   1   2
BRANCH   1  12
HETATM   12  C15 UNL     1      -3.727   2.447   0.570  1.00  0.00    -0.031 C 
HETATM   13  C14 UNL     1      -4.840   1.725   0.372  1.00  0.00    -0.031 C 
BRANCH  13  14
HETATM   14  C10 UNL     1      -5.140   0.788  -0.763  1.00  0.00     0.027 C 
BRANCH  14  15
HETATM   15  C6  UNL     1      -5.525  -0.620  -0.292  1.00  0.00     0.004 C 
BRANCH  15  16
HETATM   16  C2  UNL     1      -4.442  -1.374   0.489  1.00  0.00     0.000 C 
BRANCH  16  17
HETATM   17  C1  UNL     1      -3.150  -1.571  -0.307  1.00  0.00     0.000 C 
BRANCH  17  18
HETATM   18  C3  UNL     1      -2.094  -2.391   0.441  1.00  0.00     0.000 C 
BRANCH  18  19
HETATM   19  C9  UNL     1      -0.811  -2.694  -0.338  1.00  0.00    -0.000 C 
BRANCH  19  20
HETATM   20  C13 UNL     1       0.220  -3.560   0.390  1.00  0.00    -0.005 C 
HETATM   21  C17 UNL     1       1.453  -3.871  -0.443  1.00  0.00     0.005 C 
ENDBRANCH  19  20
ENDBRANCH  18  19
ENDBRANCH  17  18
ENDBRANCH  16  17
ENDBRANCH  15  16
ENDBRANCH  14  15
ENDBRANCH  13  14
ENDBRANCH   1  12
TORSDOF 16
