REMARK  15 active torsions:
REMARK  status: ('A' for Active; 'I' for Inactive)
REMARK    1  A    between atoms: O1_1  and  C16_18 
REMARK    2  A    between atoms: C1_3  and  C2_4 
REMARK    3  A    between atoms: C1_3  and  C3_5 
REMARK    4  A    between atoms: C2_4  and  C4_6 
REMARK    5  A    between atoms: C3_5  and  C5_7 
REMARK    6  A    between atoms: C4_6  and  C6_8 
REMARK    7  A    between atoms: C5_7  and  C7_9 
REMARK    8  A    between atoms: C6_8  and  C10_12 
REMARK    9  A    between atoms: C7_9  and  C16_18 
REMARK   10  A    between atoms: C8_10  and  C9_11 
REMARK   11  A    between atoms: C8_10  and  C11_13 
REMARK   12  A    between atoms: C9_11  and  C12_14 
REMARK   13  A    between atoms: C11_13  and  C15_17 
REMARK   14  A    between atoms: C13_15  and  C14_16 
REMARK   15  A    between atoms: C14_16  and  C17_19 
ROOT
HETATM    1  C6  UNL     1       2.456   2.788  -0.123  1.00  0.00     0.027 C 
ENDROOT
BRANCH   1   2
HETATM    2  C4  UNL     1       1.296   1.905  -0.596  1.00  0.00     0.004 C 
BRANCH   2   3
HETATM    3  C2  UNL     1      -0.007   2.152   0.172  1.00  0.00     0.000 C 
BRANCH   3   4
HETATM    4  C1  UNL     1      -1.182   1.313  -0.342  1.00  0.00     0.000 C 
BRANCH   4   5
HETATM    5  C3  UNL     1      -2.478   1.541   0.440  1.00  0.00     0.001 C 
BRANCH   5   6
HETATM    6  C5  UNL     1      -3.615   0.670  -0.108  1.00  0.00     0.010 C 
BRANCH   6   7
HETATM    7  C7  UNL     1      -4.916   0.850   0.674  1.00  0.00     0.110 C 
BRANCH   7   8
HETATM    8  C16 UNL     1      -6.049   0.007   0.141  1.00  0.00     0.139 C 
HETATM    9  O2  UNL     1      -5.991  -0.763  -0.807  1.00  0.00    -0.650 OA
BRANCH   8  10
HETATM   10  O1  UNL     1      -7.164   0.194   0.892  1.00  0.00    -0.776 OA
HETATM   11  H32 UNL     1      -7.914  -0.354   0.576  1.00  0.00     0.167 HD
ENDBRANCH   8  10
ENDBRANCH   7   8
ENDBRANCH   6   7
ENDBRANCH   5   6
ENDBRANCH   4   5
ENDBRANCH   3   4
ENDBRANCH   2   3
ENDBRANCH   1   2
BRANCH   1  12
HETATM   12  C10 UNL     1       3.737   2.526  -0.862  1.00  0.00    -0.030 C 
HETATM   13  C13 UNL     1       4.638   1.605  -0.488  1.00  0.00    -0.027 C 
BRANCH  13  14
HETATM   14  C14 UNL     1       4.477   0.722   0.714  1.00  0.00     0.053 C 
BRANCH  14  15
HETATM   15  C17 UNL     1       5.236  -0.565   0.558  1.00  0.00    -0.027 C 
HETATM   16  C15 UNL     1       4.667  -1.777   0.654  1.00  0.00    -0.030 C 
BRANCH  16  17
HETATM   17  C11 UNL     1       3.220  -2.088   0.927  1.00  0.00     0.027 C 
BRANCH  17  18
HETATM   18  C8  UNL     1       2.312  -2.280  -0.295  1.00  0.00     0.004 C 
BRANCH  18  19
HETATM   19  C9  UNL     1       0.880  -2.618   0.131  1.00  0.00    -0.000 C 
BRANCH  19  20
HETATM   20  C12 UNL     1      -0.055  -2.888  -1.050  1.00  0.00    -0.005 C 
HETATM   21  C18 UNL     1      -1.460  -3.293  -0.632  1.00  0.00     0.005 C 
ENDBRANCH  19  20
ENDBRANCH  18  19
ENDBRANCH  17  18
ENDBRANCH  16  17
ENDBRANCH  14  15
ENDBRANCH  13  14
ENDBRANCH   1  12
TORSDOF 15
