REMARK  14 active torsions:
REMARK  status: ('A' for Active; 'I' for Inactive)
REMARK    1  A    between atoms: O1_1  and  C9_11 
REMARK    2  A    between atoms: C1_3  and  C2_4 
REMARK    3  A    between atoms: C1_3  and  C3_5 
REMARK    4  A    between atoms: C2_4  and  C4_6 
REMARK    5  A    between atoms: C3_5  and  C5_7 
REMARK    6  A    between atoms: C4_6  and  C6_8 
REMARK    7  A    between atoms: C5_7  and  C7_9 
REMARK    8  A    between atoms: C6_8  and  C8_10 
REMARK    9  A    between atoms: C7_9  and  C9_11 
REMARK   10  A    between atoms: C10_12  and  C11_13 
REMARK   11  A    between atoms: C11_13  and  C12_14 
REMARK   12  A    between atoms: C13_15  and  C14_16 
REMARK   13  A    between atoms: C14_16  and  C15_17 
REMARK   14  A    between atoms: C16_18  and  C17_19 
ROOT
HETATM    1  C6  UNL     1      -3.095   2.586   0.761  1.00  0.00     0.027 C 
ENDROOT
BRANCH   1   2
HETATM    2  C4  UNL     1      -1.698   3.204   0.615  1.00  0.00     0.004 C 
BRANCH   2   3
HETATM    3  C2  UNL     1      -0.653   2.201   0.114  1.00  0.00     0.000 C 
BRANCH   3   4
HETATM    4  C1  UNL     1       0.760   2.787   0.037  1.00  0.00     0.000 C 
BRANCH   4   5
HETATM    5  C3  UNL     1       1.816   1.764  -0.390  1.00  0.00     0.001 C 
BRANCH   5   6
HETATM    6  C5  UNL     1       3.219   2.380  -0.379  1.00  0.00     0.010 C 
BRANCH   6   7
HETATM    7  C7  UNL     1       4.293   1.394  -0.828  1.00  0.00     0.110 C 
BRANCH   7   8
HETATM    8  C9  UNL     1       4.372   0.181   0.065  1.00  0.00     0.139 C 
HETATM    9  O2  UNL     1       4.580   0.232   1.271  1.00  0.00    -0.650 OA
BRANCH   8  10
HETATM   10  O1  UNL     1       4.181  -0.979  -0.611  1.00  0.00    -0.776 OA
HETATM   11  H23 UNL     1       4.243  -1.759  -0.020  1.00  0.00     0.167 HD
ENDBRANCH   8  10
ENDBRANCH   7   8
ENDBRANCH   6   7
ENDBRANCH   5   6
ENDBRANCH   4   5
ENDBRANCH   3   4
ENDBRANCH   2   3
ENDBRANCH   1   2
BRANCH   1  12
HETATM   12  C8  UNL     1      -3.751   2.008  -0.464  1.00  0.00    -0.030 C 
HETATM   13  C10 UNL     1      -4.106   0.731  -0.673  1.00  0.00    -0.027 C 
BRANCH  13  14
HETATM   14  C11 UNL     1      -3.892  -0.367   0.329  1.00  0.00     0.053 C 
BRANCH  14  15
HETATM   15  C12 UNL     1      -3.777  -1.705  -0.340  1.00  0.00    -0.027 C 
HETATM   16  C13 UNL     1      -2.609  -2.267  -0.690  1.00  0.00    -0.027 C 
BRANCH  16  17
HETATM   17  C14 UNL     1      -1.273  -1.626  -0.455  1.00  0.00     0.053 C 
BRANCH  17  18
HETATM   18  C15 UNL     1      -0.733  -1.959   0.905  1.00  0.00    -0.027 C 
HETATM   19  C16 UNL     1       0.057  -3.013   1.157  1.00  0.00    -0.031 C 
BRANCH  19  20
HETATM   20  C17 UNL     1       0.500  -3.992   0.111  1.00  0.00     0.022 C 
HETATM   21  C18 UNL     1       1.807  -3.560  -0.536  1.00  0.00     0.009 C 
ENDBRANCH  19  20
ENDBRANCH  17  18
ENDBRANCH  16  17
ENDBRANCH  14  15
ENDBRANCH  13  14
ENDBRANCH   1  12
TORSDOF 14
