REMARK  14 active torsions:
REMARK  status: ('A' for Active; 'I' for Inactive)
REMARK    1  A    between atoms: O1_1  and  C9_11 
REMARK    2  A    between atoms: C1_3  and  C2_4 
REMARK    3  A    between atoms: C1_3  and  C3_5 
REMARK    4  A    between atoms: C2_4  and  C4_6 
REMARK    5  A    between atoms: C3_5  and  C9_11 
REMARK    6  A    between atoms: C5_7  and  C6_8 
REMARK    7  A    between atoms: C5_7  and  C7_9 
REMARK    8  A    between atoms: C8_10  and  C10_12 
REMARK    9  A    between atoms: C8_10  and  C12_14 
REMARK   10  A    between atoms: C11_13  and  C14_16 
REMARK   11  A    between atoms: C11_13  and  C15_17 
REMARK   12  A    between atoms: C13_15  and  C16_18 
REMARK   13  A    between atoms: C13_15  and  C17_19 
REMARK   14  A    between atoms: C18_20  and  C19_21 
ROOT
HETATM    1  C7  UNL     1       4.155  -0.289   1.037  1.00  0.00    -0.027 C 
HETATM    2  C10 UNL     1       4.000   0.466  -0.061  1.00  0.00    -0.027 C 
ENDROOT
BRANCH   2   3
HETATM    3  C8  UNL     1       3.969   1.966  -0.037  1.00  0.00     0.053 C 
BRANCH   3   4
HETATM    4  C12 UNL     1       2.706   2.494  -0.649  1.00  0.00    -0.027 C 
HETATM    5  C14 UNL     1       1.854   3.314  -0.014  1.00  0.00    -0.027 C 
BRANCH   5   6
HETATM    6  C11 UNL     1       0.586   3.828  -0.630  1.00  0.00     0.053 C 
BRANCH   6   7
HETATM    7  C15 UNL     1      -0.606   3.519   0.229  1.00  0.00    -0.027 C 
HETATM    8  C16 UNL     1      -1.720   2.862  -0.129  1.00  0.00    -0.027 C 
BRANCH   8   9
HETATM    9  C13 UNL     1      -2.913   2.552   0.728  1.00  0.00     0.053 C 
BRANCH   9  10
HETATM   10  C17 UNL     1      -3.080   1.073   0.920  1.00  0.00    -0.027 C 
HETATM   11  C19 UNL     1      -4.208   0.406   0.633  1.00  0.00    -0.031 C 
BRANCH  11  12
HETATM   12  C18 UNL     1      -4.371  -1.074   0.809  1.00  0.00     0.022 C 
HETATM   13  C20 UNL     1      -4.891  -1.414   2.196  1.00  0.00     0.009 C 
ENDBRANCH  11  12
ENDBRANCH   9  10
ENDBRANCH   8   9
ENDBRANCH   6   7
ENDBRANCH   5   6
ENDBRANCH   3   4
ENDBRANCH   2   3
BRANCH   1  14
HETATM   14  C5  UNL     1       4.159  -1.790   1.029  1.00  0.00     0.053 C 
BRANCH  14  15
HETATM   15  C6  UNL     1       2.774  -2.333   1.226  1.00  0.00    -0.027 C 
HETATM   16  C4  UNL     1       2.147  -3.122   0.342  1.00  0.00    -0.030 C 
BRANCH  16  17
HETATM   17  C2  UNL     1       0.747  -3.630   0.530  1.00  0.00     0.027 C 
BRANCH  17  18
HETATM   18  C1  UNL     1      -0.182  -3.260  -0.633  1.00  0.00     0.014 C 
BRANCH  18  19
HETATM   19  C3  UNL     1      -0.375  -1.758  -0.842  1.00  0.00     0.110 C 
BRANCH  19  20
HETATM   20  C9  UNL     1      -1.337  -1.438  -1.955  1.00  0.00     0.139 C 
HETATM   21  O2  UNL     1      -1.891  -2.272  -2.657  1.00  0.00    -0.650 OA
BRANCH  20  22
HETATM   22  O1  UNL     1      -1.525  -0.101  -2.073  1.00  0.00    -0.776 OA
HETATM   23  H30 UNL     1      -2.158   0.119  -2.789  1.00  0.00     0.167 HD
ENDBRANCH  20  22
ENDBRANCH  19  20
ENDBRANCH  18  19
ENDBRANCH  17  18
ENDBRANCH  16  17
ENDBRANCH  14  15
ENDBRANCH   1  14
TORSDOF 14
