REMARK  15 active torsions:
REMARK  status: ('A' for Active; 'I' for Inactive)
REMARK    1  A    between atoms: O1_1  and  C21_23 
REMARK    2  A    between atoms: C1_3  and  C5_7 
REMARK    3  A    between atoms: C1_3  and  C6_8 
REMARK    4  A    between atoms: C2_4  and  C8_10 
REMARK    5  A    between atoms: C2_4  and  C9_11 
REMARK    6  A    between atoms: C3_5  and  C10_12 
REMARK    7  A    between atoms: C3_5  and  C11_13 
REMARK    8  A    between atoms: C4_6  and  C13_15 
REMARK    9  A    between atoms: C4_6  and  C14_16 
REMARK   10  A    between atoms: C5_7  and  C21_23 
REMARK   11  A    between atoms: C7_9  and  C15_17 
REMARK   12  A    between atoms: C7_9  and  C16_18 
REMARK   13  A    between atoms: C12_14  and  C17_19 
REMARK   14  A    between atoms: C12_14  and  C18_20 
REMARK   15  A    between atoms: C19_21  and  C20_22 
ROOT
HETATM    1  C11 UNL     1      -1.007   2.275   2.438  1.00  0.00    -0.027 C 
HETATM    2  C13 UNL     1       0.036   1.708   3.062  1.00  0.00    -0.027 C 
ENDROOT
BRANCH   1   3
HETATM    3  C3  UNL     1      -1.305   2.093   0.978  1.00  0.00     0.053 C 
BRANCH   3   4
HETATM    4  C10 UNL     1      -0.627   3.141   0.145  1.00  0.00    -0.027 C 
HETATM    5  C9  UNL     1      -0.225   2.937  -1.119  1.00  0.00    -0.027 C 
BRANCH   5   6
HETATM    6  C2  UNL     1      -0.405   1.639  -1.849  1.00  0.00     0.053 C 
BRANCH   6   7
HETATM    7  C8  UNL     1      -1.661   1.635  -2.671  1.00  0.00    -0.027 C 
HETATM    8  C6  UNL     1      -2.656   0.736  -2.618  1.00  0.00    -0.030 C 
BRANCH   8   9
HETATM    9  C1  UNL     1      -2.740  -0.467  -1.720  1.00  0.00     0.037 C 
BRANCH   9  10
HETATM   10  C5  UNL     1      -3.931  -0.396  -0.769  1.00  0.00     0.113 C 
BRANCH  10  11
HETATM   11  C21 UNL     1      -4.041  -1.610   0.119  1.00  0.00     0.139 C 
HETATM   12  O2  UNL     1      -4.639  -2.633  -0.189  1.00  0.00    -0.650 OA
BRANCH  11  13
HETATM   13  O1  UNL     1      -3.395  -1.451   1.301  1.00  0.00    -0.776 OA
HETATM   14  H32 UNL     1      -3.466  -2.248   1.868  1.00  0.00     0.167 HD
ENDBRANCH  11  13
ENDBRANCH  10  11
ENDBRANCH   9  10
ENDBRANCH   8   9
ENDBRANCH   6   7
ENDBRANCH   5   6
ENDBRANCH   3   4
ENDBRANCH   1   3
BRANCH   2  15
HETATM   15  C4  UNL     1       1.038   0.821   2.384  1.00  0.00     0.053 C 
BRANCH  15  16
HETATM   16  C14 UNL     1       1.083  -0.546   3.000  1.00  0.00    -0.027 C 
HETATM   17  C15 UNL     1       0.872  -1.727   2.400  1.00  0.00    -0.027 C 
BRANCH  17  18
HETATM   18  C7  UNL     1       0.536  -1.970   0.957  1.00  0.00     0.053 C 
BRANCH  18  19
HETATM   19  C16 UNL     1       1.558  -2.853   0.299  1.00  0.00    -0.027 C 
HETATM   20  C17 UNL     1       2.321  -2.571  -0.769  1.00  0.00    -0.027 C 
BRANCH  20  21
HETATM   21  C12 UNL     1       2.357  -1.296  -1.559  1.00  0.00     0.053 C 
BRANCH  21  22
HETATM   22  C18 UNL     1       3.729  -1.033  -2.107  1.00  0.00    -0.027 C 
HETATM   23  C20 UNL     1       4.677  -0.346  -1.453  1.00  0.00    -0.031 C 
BRANCH  23  24
HETATM   24  C19 UNL     1       4.482   0.247  -0.089  1.00  0.00     0.022 C 
HETATM   25  C22 UNL     1       3.944   1.667  -0.172  1.00  0.00     0.009 C 
ENDBRANCH  23  24
ENDBRANCH  21  22
ENDBRANCH  20  21
ENDBRANCH  18  19
ENDBRANCH  17  18
ENDBRANCH  15  16
ENDBRANCH   2  15
TORSDOF 15
